 Gaussian 09, Revision D.01,
 Gaussian 09:  AM64L-G09RevD.01 24-Apr-2013

 ----------------------------------------------------------------------
 #p geom=allcheck guess=read chkbasis freq=(noraman,HPModes) pop=(Chelp
 G,readradii) m06 empiricaldispersion=gd3 int=ultrafine
 ----------------------------------------------------------------------

 Structure from the checkpoint file:  "/scratch/Gau-22122.chk"
 ------------
 freq with HP
 ------------
 Charge =  1 Multiplicity = 1

                         Standard orientation:
 ---------------------------------------------------------------------
 Center     Atomic      Atomic             Coordinates (Angstroms)
 Number     Number       Type             X           Y           Z
 ---------------------------------------------------------------------
      1         46           0       -0.072356   -0.948014    0.005811
      2          6           0       -0.116297   -3.031512   -0.025454
      3          6           0       -1.499800   -2.818408   -0.189480
      4          6           0       -2.150322   -0.830031   -0.083752
      5          7           0        0.191788    1.217136   -0.085104
      6          6           0        1.426678    1.557889   -0.150591
      7          6           0        2.516818    0.581963   -0.054074
      8          7           0        2.109245   -0.701038    0.069183
      9          6           0        3.038877   -1.650502    0.179509
     10          1           0        2.682036   -2.674186    0.278326
     11          8           0        1.715592    2.845489   -0.301182
     12          6           0       -3.860884    0.358877   -1.294320
     13          6           0       -4.525599    0.617502   -0.095750
     14          6           0       -4.009144    0.136439    1.106672
     15          6           0       -2.822231   -0.594347    1.117333
     16          6           0       -2.675629   -0.375074   -1.295132
     17          1           0       -5.459028    1.177209   -0.101457
     18          1           0       -4.534713    0.322968    2.042135
     19          1           0       -2.425774   -0.979847    2.057912
     20          1           0       -2.165036   -0.589174   -2.235169
     21          1           0       -4.271793    0.717961   -2.236853
     22          1           0       -1.938910   -2.940452   -1.178078
     23          1           0       -2.169523   -3.057259    0.633523
     24          1           0        0.255920   -3.374740    0.943006
     25          1           0        0.483337   -3.309486   -0.895915
     26          6           0        3.853473    0.949803   -0.077266
     27          6           0        4.816981   -0.050094    0.040648
     28          6           0        4.403783   -1.368459    0.173388
     29          6           0        0.436844    3.503188   -0.529643
     30          6           0       -0.603220    2.460217   -0.087078
     31          1           0        4.122495    1.998134   -0.183501
     32          1           0        5.875141    0.201955    0.029057
     33          1           0        5.121106   -2.179545    0.270173
     34          1           0        0.427525    4.420491    0.066599
     35          1           0        0.390993    3.751413   -1.596115
     36          1           0       -1.417573    2.360459   -0.816944
     37          6           0       -1.160045    2.721841    1.300967
     38          1           0       -1.774625    3.630774    1.303065
     39          1           0       -1.784215    1.884783    1.634029
     40          1           0       -0.342627    2.854829    2.023902
 ---------------------------------------------------------------------

 SCF Done:  E(RM06) =  -969.903286975     A.U. after    2 cycles

 The electronic state is 1-A.
 Alpha  occ. eigenvalues --  -19.41635 -14.59055 -14.55281 -10.49797 -10.45334
 Alpha  occ. eigenvalues --  -10.44186 -10.43375 -10.42184 -10.41618 -10.41478
 Alpha  occ. eigenvalues --  -10.40986 -10.40671 -10.40173 -10.39404 -10.37141
 Alpha  occ. eigenvalues --  -10.37100 -10.36741 -10.36683 -10.36430 -10.35115
 Alpha  occ. eigenvalues --   -3.47398  -2.21774  -2.21527  -2.18292  -1.26831
 Alpha  occ. eigenvalues --   -1.12745  -1.07126  -0.98356  -0.96699  -0.95857
 Alpha  occ. eigenvalues --   -0.92452  -0.90801  -0.87225  -0.86714  -0.84001
 Alpha  occ. eigenvalues --   -0.80866  -0.79244  -0.74825  -0.74406  -0.72983
 Alpha  occ. eigenvalues --   -0.72873  -0.71187  -0.68797  -0.65313  -0.64722
 Alpha  occ. eigenvalues --   -0.63816  -0.63501  -0.61887  -0.61227  -0.59344
 Alpha  occ. eigenvalues --   -0.58178  -0.58100  -0.57956  -0.57462  -0.57337
 Alpha  occ. eigenvalues --   -0.56581  -0.54423  -0.54319  -0.53367  -0.52637
 Alpha  occ. eigenvalues --   -0.52349  -0.51946  -0.51815  -0.50709  -0.50032
 Alpha  occ. eigenvalues --   -0.49543  -0.48497  -0.47697  -0.46825  -0.45646
 Alpha  occ. eigenvalues --   -0.45489  -0.42919  -0.42704  -0.41923  -0.41755
 Alpha  occ. eigenvalues --   -0.40254  -0.38609  -0.38191  -0.37442  -0.35443
 Alpha virt. eigenvalues --   -0.19812  -0.17572  -0.16517  -0.15090  -0.13052
 Alpha virt. eigenvalues --   -0.12359  -0.12016  -0.11686  -0.11283  -0.10143
 Alpha virt. eigenvalues --   -0.09975  -0.09533  -0.09271  -0.08893  -0.08805

 Mulliken charges:
               1
     1  Pd  -0.038033
     2  C   -0.352165
     3  C   -0.337674
     4  C    0.289919
     5  N   -0.129654
     6  C   -0.019412
     7  C   -0.017112
     8  N    0.127177
     9  C    0.140297
    10  H    0.216129
    11  O   -0.316215
    12  C   -0.115488
    13  C   -0.164446
    14  C   -0.119830
    15  C   -0.478795
    16  C   -0.422924
    17  H    0.218231
    18  H    0.217633
    19  H    0.215199
    20  H    0.212571
    21  H    0.215379
    22  H    0.271292
    23  H    0.271955
    24  H    0.248493
    25  H    0.247222
    26  C   -0.020085
    27  C   -0.324168
    28  C   -0.436645
    29  C   -0.223075
    30  C    0.110830
    31  H    0.262227
    32  H    0.247923
    33  H    0.245093
    34  H    0.236182
    35  H    0.236828
    36  H    0.225038
    37  C   -0.642838
    38  H    0.237972
    39  H    0.238890
    40  H    0.226077
 Sum of Mulliken charges =   1.00000

 Dipole moment (field-independent basis, Debye):
    X=              3.0499    Y=             -0.1603    Z=             -0.3179  Tot=              3.0706
 Quadrupole moment (field-independent basis, Debye-Ang):
   XX=            -76.6309   YY=           -100.6371   ZZ=           -128.6067
   XY=             -7.3735   XZ=              0.5057   YZ=             -2.4820

  Exact polarizability: 324.713 -25.747 240.491  -1.255  -5.403 161.885
 Approx polarizability: 439.081 -40.567 367.520  -1.384 -14.671 274.572

 ESP charges:
               1
     1  Pd  -0.161670
     2  C   -0.082819
     3  C   -0.101794
     4  C    0.352051
     5  N   -0.323490
     6  C    0.415619
     7  C    0.247074
     8  N   -0.232771
     9  C    0.232425
    10  H    0.058206
    11  O   -0.340462
    12  C   -0.001980
    13  C   -0.150176
    14  C   -0.033110
    15  C   -0.227378
    16  C   -0.249133
    17  H    0.127762
    18  H    0.109683
    19  H    0.137440
    20  H    0.137294
    21  H    0.097723
    22  H    0.103376
    23  H    0.093517
    24  H    0.113304
    25  H    0.106051
    26  C   -0.209544
    27  C    0.104271
    28  C   -0.225060
    29  C    0.075290
    30  C    0.296294
    31  H    0.142833
    32  H    0.115010
    33  H    0.155668
    34  H    0.095309
    35  H    0.070325
    36  H   -0.008615
    37  C   -0.292837
    38  H    0.080127
    39  H    0.086216
    40  H    0.087974
 Sum of ESP charges =   1.00000

 ******    1 imaginary frequencies (negative Signs) ******

                      1                      2                      3
                      A                      A                      A
 Frequencies --   -285.4377                13.9550                52.8883
 Red. masses --      6.9485                 4.5002                 4.3073
 Frc consts  --      0.3336                 0.0005                 0.0071
 IR Inten    --     26.8974                 0.0202                 0.1385

                      4                      5                      6
                      A                      A                      A
 Frequencies --     56.1881                73.7735                92.5775
 Red. masses --      3.9359                 3.9860                 3.6890
 Frc consts  --      0.0073                 0.0128                 0.0186
 IR Inten    --      1.1562                 0.4939                 1.5306

                      7                      8                      9
                      A                      A                      A
 Frequencies --    106.2727               108.2677               126.5777
 Red. masses --      3.3161                 3.1957                 4.4678
 Frc consts  --      0.0221                 0.0221                 0.0422
 IR Inten    --      1.3355                 0.4699                 1.4200

                     10                     11                     12
                      A                      A                      A
 Frequencies --    145.7966               148.3970               170.0355
 Red. masses --      3.5455                 4.7289                 4.9669
 Frc consts  --      0.0444                 0.0614                 0.0846
 IR Inten    --      1.2061                 1.4504                 0.5482

                     13                     14                     15
                      A                      A                      A
 Frequencies --    192.3157               221.0415               221.9104
 Red. masses --      5.3493                 4.1114                 3.0292
 Frc consts  --      0.1166                 0.1184                 0.0879
 IR Inten    --      0.6395                10.7481                 0.6679

                     16                     17                     18
                      A                      A                      A
 Frequencies --    241.8553               247.6507               253.7457
 Red. masses --      3.6128                 6.1547                 1.5635
 Frc consts  --      0.1245                 0.2224                 0.0593
 IR Inten    --      0.6030                 2.5034                 1.3372

                     19                     20                     21
                      A                      A                      A
 Frequencies --    330.2198               346.2454               382.6375
 Red. masses --      7.4517                 4.0356                 2.8499
 Frc consts  --      0.4788                 0.2851                 0.2458
 IR Inten    --      2.1548                 1.5517                 3.2756

                     22                     23                     24
                      A                      A                      A
 Frequencies --    411.1089               417.7169               419.7949
 Red. masses --      2.8726                 3.3129                 3.3018
 Frc consts  --      0.2860                 0.3406                 0.3428
 IR Inten    --      0.1190                 3.5243                 2.2502

                     25                     26                     27
                      A                      A                      A
 Frequencies --    433.0738               476.4055               515.5282
 Red. masses --      3.9949                 5.0061                 3.7845
 Frc consts  --      0.4414                 0.6694                 0.5926
 IR Inten    --      1.2693                 5.9748                 0.8782

                     28                     29                     30
                      A                      A                      A
 Frequencies --    520.9756               609.1751               642.1838
 Red. masses --      4.2238                 6.3792                 6.4489
 Frc consts  --      0.6754                 1.3948                 1.5669
 IR Inten    --     10.3798                 0.0011                10.6557

                     31                     32                     33
                      A                      A                      A
 Frequencies --    645.3507               689.5388               694.8733
 Red. masses --      6.8740                 3.3497                 2.1529
 Frc consts  --      1.6867                 0.9384                 0.6125
 IR Inten    --      2.2139                19.4864                 6.4687

                     34                     35                     36
                      A                      A                      A
 Frequencies --    698.0616               714.2148               733.2092
 Red. masses --      1.4816                 6.4770                 1.2916
 Frc consts  --      0.4254                 1.9466                 0.4091
 IR Inten    --      6.3552                 4.3003                90.5646

                     37                     38                     39
                      A                      A                      A
 Frequencies --    747.6953               762.3421               810.6814
 Red. masses --      3.3095                 1.8098                 2.3785
 Frc consts  --      1.0901                 0.6197                 0.9210
 IR Inten    --      1.7965                27.6411                15.9949

                     40                     41                     42
                      A                      A                      A
 Frequencies --    842.9903               851.7127               863.1283
 Red. masses --      1.2147                 1.0709                 2.6836
 Frc consts  --      0.5086                 0.4577                 1.1779
 IR Inten    --      0.0233                 0.2385                 8.7258

                     43                     44                     45
                      A                      A                      A
 Frequencies --    914.2207               920.6965               920.9362
 Red. masses --      1.3061                 2.0790                 1.6480
 Frc consts  --      0.6432                 1.0383                 0.8235
 IR Inten    --      1.8927                 1.9715                 1.0178

                     46                     47                     48
                      A                      A                      A
 Frequencies --    941.2002               970.4675               977.3602
 Red. masses --      1.5307                 1.2441                 1.3656
 Frc consts  --      0.7989                 0.6904                 0.7686
 IR Inten    --     13.4248                 7.6031                 0.0116

                     49                     50                     51
                      A                      A                      A
 Frequencies --    982.8219               984.3221               985.2281
 Red. masses --      5.5280                 1.4419                 3.8529
 Frc consts  --      3.1461                 0.8231                 2.2035
 IR Inten    --     18.3961                 0.8025                15.7802

                     52                     53                     54
                      A                      A                      A
 Frequencies --    994.6464               994.9820              1003.2973
 Red. masses --      1.4343                 2.5992                 1.3024
 Frc consts  --      0.8360                 1.5161                 0.7724
 IR Inten    --     14.9835                48.1270                 0.1389

                     55                     56                     57
                      A                      A                      A
 Frequencies --   1025.3595              1028.2359              1032.8580
 Red. masses --      1.3500                 5.0713                 7.5720
 Frc consts  --      0.8363                 3.1590                 4.7593
 IR Inten    --      0.1714                 0.2157                11.5433

                     58                     59                     60
                      A                      A                      A
 Frequencies --   1057.9755              1075.2051              1085.2958
 Red. masses --      1.6700                 2.2468                 2.1912
 Frc consts  --      1.1013                 1.5304                 1.5207
 IR Inten    --      0.5031                 2.9086                 5.5429

                     61                     62                     63
                      A                      A                      A
 Frequencies --   1095.1056              1103.8826              1112.1842
 Red. masses --      1.5048                 1.2456                 1.6898
 Frc consts  --      1.0633                 0.8943                 1.2315
 IR Inten    --      5.4798                 0.1282                12.9051

                     64                     65                     66
                      A                      A                      A
 Frequencies --   1122.9943              1158.7720              1169.9601
 Red. masses --      1.5474                 1.9492                 1.0823
 Frc consts  --      1.1497                 1.5421                 0.8728
 IR Inten    --     16.8965                 0.1755                 0.0330

                     67                     68                     69
                      A                      A                      A
 Frequencies --   1170.8221              1185.5735              1194.0795
 Red. masses --      1.0992                 1.1235                 2.6853
 Frc consts  --      0.8878                 0.9304                 2.2559
 IR Inten    --      0.3500                 1.6405                56.9723

                     70                     71                     72
                      A                      A                      A
 Frequencies --   1231.5854              1234.0088              1235.3155
 Red. masses --      1.6787                 1.5099                 1.2669
 Frc consts  --      1.5002                 1.3547                 1.1390
 IR Inten    --      2.9647                 2.7997                17.0952

                     73                     74                     75
                      A                      A                      A
 Frequencies --   1281.0895              1306.5242              1315.0425
 Red. masses --      1.5131                 1.3702                 1.3397
 Frc consts  --      1.4631                 1.3781                 1.3650
 IR Inten    --     33.9248                 1.1946                 1.0523

                     76                     77                     78
                      A                      A                      A
 Frequencies --   1335.6035              1350.4192              1360.9504
 Red. masses --      1.6946                 3.2098                 6.8082
 Frc consts  --      1.7811                 3.4488                 7.4296
 IR Inten    --     44.1395                 4.7205                 1.0141

                     79                     80                     81
                      A                      A                      A
 Frequencies --   1366.6930              1403.5910              1436.8345
 Red. masses --      1.7549                 1.2950                 1.1094
 Frc consts  --      1.9313                 1.5031                 1.3495
 IR Inten    --      1.8364                22.1686                 2.6406

                     82                     83                     84
                      A                      A                      A
 Frequencies --   1446.3899              1463.9444              1472.2176
 Red. masses --      2.4530                 2.2158                 1.0581
 Frc consts  --      3.0236                 2.7979                 1.3512
 IR Inten    --    139.2374                 8.2027                10.5899

                     85                     86                     87
                      A                      A                      A
 Frequencies --   1473.0721              1478.0138              1491.8232
 Red. masses --      2.4352                 1.0486                 2.0992
 Frc consts  --      3.1133                 1.3496                 2.7526
 IR Inten    --      8.7578                 6.4010                18.5708

                     88                     89                     90
                      A                      A                      A
 Frequencies --   1496.4391              1522.9560              1537.2703
 Red. masses --      1.1803                 1.5874                 3.6186
 Frc consts  --      1.5573                 2.1693                 5.0385
 IR Inten    --     11.1249                 2.5141                31.7651

                     91                     92                     93
                      A                      A                      A
 Frequencies --   1625.3018              1636.2337              1641.7859
 Red. masses --      5.8347                 6.1971                 6.7933
 Frc consts  --      9.0810                 9.7753                10.7886
 IR Inten    --     14.7969                 2.5370                 7.0514

                     94                     95                     96
                      A                      A                      A
 Frequencies --   1659.5334              1722.3962              3035.3836
 Red. masses --      6.5935                10.3591                 1.0395
 Frc consts  --     10.6988                18.1067                 5.6426
 IR Inten    --     91.3231               152.2960                12.2530

                     97                     98                     99
                      A                      A                      A
 Frequencies --   3068.7491              3077.4042              3097.8964
 Red. masses --      1.0828                 1.0641                 1.0553
 Frc consts  --      6.0079                 5.9374                 5.9671
 IR Inten    --      4.1012                20.4512                 5.5700

                    100                    101                    102
                      A                      A                      A
 Frequencies --   3122.2397              3147.9308              3148.1637
 Red. masses --      1.1020                 1.0584                 1.1054
 Frc consts  --      6.3297                 6.1795                 6.4546
 IR Inten    --     10.6677                 2.7377                 3.6494

                    103                    104                    105
                      A                      A                      A
 Frequencies --   3150.1333              3159.8195              3162.1528
 Red. masses --      1.1064                 1.0885                 1.0885
 Frc consts  --      6.4688                 6.4033                 6.4130
 IR Inten    --      4.1559                 0.8376                 0.6769

                    106                    107                    108
                      A                      A                      A
 Frequencies --   3179.5829              3185.6691              3190.0132
 Red. masses --      1.0898                 1.0942                 1.0905
 Frc consts  --      6.4913                 6.5425                 6.5384
 IR Inten    --      0.6036                 7.6369                 5.5922

                    109                    110                    111
                      A                      A                      A
 Frequencies --   3192.9971              3198.2807              3199.0727
 Red. masses --      1.1169                 1.0909                 1.0984
 Frc consts  --      6.7089                 6.5743                 6.6228
 IR Inten    --      0.5436                 0.8784                 8.6158

                    112                    113                    114
                      A                      A                      A
 Frequencies --   3211.6614              3215.9092              3248.8038
 Red. masses --      1.0944                 1.0998                 1.1167
 Frc consts  --      6.6508                 6.7016                 6.9443
 IR Inten    --      0.8303                 1.0775                 0.4331

 - Thermochemistry -
 -------------------
 Temperature   298.150 Kelvin.  Pressure   1.00000 Atm.
 Atom     1 has atomic number 46 and mass 105.90320

 Molecular mass:   373.05294 amu.
 Principal axes and moments of inertia in atomic units:
                           1         2         3
     Eigenvalues --  4074.798247962.87591**********
           X            0.99986  -0.01678  -0.00127
           Y            0.01678   0.99985   0.00452
           Z            0.00120  -0.00454   0.99999
 This molecule is an asymmetric top.
 Rotational symmetry number  1.
 Warning -- assumption of classical behavior for rotation
           may cause significant error
 Rotational temperatures (Kelvin)      0.02126     0.01088     0.00780
 Rotational constants (GHZ):           0.44290     0.22664     0.16257
    1 imaginary frequencies ignored.
 Zero-point vibrational energy     853879.4 (Joules/Mol)
                                  204.08208 (Kcal/Mol)
 Warning -- explicit consideration of  28 degrees of freedom as
           vibrations may cause significant error
 Vibrational temperatures:     20.08    76.09    80.84   106.14   133.20
          (Kelvin)            152.90   155.77   182.12   209.77   213.51
                              244.64   276.70   318.03   319.28   347.98
                              356.31   365.08   475.11   498.17   550.53
                              591.49   601.00   603.99   623.10   685.44
                              741.73   749.57   876.47   923.96   928.51
                              992.09   999.77  1004.35  1027.59  1054.92
                             1075.77  1096.84  1166.39  1212.87  1225.42
                             1241.85  1315.36  1324.68  1325.02  1354.18
                             1396.28  1406.20  1414.06  1416.22  1417.52
                             1431.07  1431.56  1443.52  1475.26  1479.40
                             1486.05  1522.19  1546.98  1561.50  1575.61
                             1588.24  1600.18  1615.74  1667.21  1683.31
                             1684.55  1705.77  1718.01  1771.97  1775.46
                             1777.34  1843.20  1879.79  1892.05  1921.63
                             1942.95  1958.10  1966.36  2019.45  2067.28
                             2081.03  2106.29  2118.19  2119.42  2126.53
                             2146.40  2153.04  2191.19  2211.79  2338.44
                             2354.17  2362.16  2387.70  2478.14  4367.23
                             4415.24  4427.69  4457.18  4492.20  4529.16
                             4529.50  4532.33  4546.27  4549.63  4574.70
                             4583.46  4589.71  4594.00  4601.61  4602.75
                             4620.86  4626.97  4674.30

 Zero-point correction=                           0.325226 (Hartree/Particle)
 Thermal correction to Energy=                    0.344689
 Thermal correction to Enthalpy=                  0.345633
 Thermal correction to Gibbs Free Energy=         0.275996
 Sum of electronic and zero-point Energies=           -969.578061
 Sum of electronic and thermal Energies=              -969.558598
 Sum of electronic and thermal Enthalpies=            -969.557654
 Sum of electronic and thermal Free Energies=         -969.627291

                     E (Thermal)             CV                S
                      KCal/Mol        Cal/Mol-Kelvin    Cal/Mol-Kelvin
 Total                  216.295             74.774            146.564
 Electronic               0.000              0.000              0.000
 Translational            0.889              2.981             43.642
 Rotational               0.889              2.981             34.243
 Vibrational            214.518             68.812             68.679
 Vibration     1          0.593              1.986              7.349
 Vibration     2          0.596              1.976              4.706
 Vibration     3          0.596              1.975              4.587
 Vibration     4          0.599              1.966              4.050
 Vibration     5          0.602              1.954              3.605
 Vibration     6          0.605              1.944              3.336
 Vibration     7          0.606              1.943              3.300
 Vibration     8          0.611              1.927              2.997
 Vibration     9          0.617              1.907              2.726
 Vibration    10          0.618              1.904              2.693
 Vibration    11          0.625              1.879              2.435
 Vibration    12          0.634              1.851              2.205
 Vibration    13          0.648              1.809              1.951
 Vibration    14          0.648              1.808              1.943
 Vibration    15          0.658              1.776              1.789
 Vibration    16          0.661              1.767              1.747
 Vibration    17          0.665              1.756              1.704
 Vibration    18          0.713              1.615              1.259
 Vibration    19          0.724              1.583              1.183
 Vibration    20          0.752              1.507              1.029
 Vibration    21          0.775              1.446              0.923
 Vibration    22          0.781              1.432              0.900
 Vibration    23          0.782              1.427              0.893
 Vibration    24          0.794              1.398              0.849
 Vibration    25          0.833              1.302              0.720
 Vibration    26          0.871              1.216              0.620
 Vibration    27          0.876              1.204              0.608
 Vibration    28          0.968              1.012              0.434

 Optimization completed.
    -- Stationary point found.
 Normal termination of Gaussian 09 at Thu Jun  2 17:47:42 2016.
